HEADER
"PSFversion" "1.00"
"design" "(\"sebastian_thesis_pilot\" \"synapsedualinputtb\" \"schematic\" \"\")"
"simulator" "spectre"
"temperature" "27"
"host" ""
"date" "May 20 16:45:29 2026"
"title" ""
"analysisList" "()"
END
