HEADER
"PSFversion" "1.00"
"design" "(\"sebastian_thesis_pilot\" \"dynapsetb1\" \"schematic\" \"\")"
"simulator" "spectre"
"temperature" "27"
"host" ""
"date" "May 12 11:16:20 2026"
"title" ""
"analysisList" "()"
END
